+ 0 1 2 tcp 40 ------- 2 1.0 5.0 0 0
- 0 1 2 tcp 40 ------- 2 1.0 5.0 0 0
r 0.003064 1 2 tcp 40 ------- 2 1.0 5.0 0 0
+ 0.003064 2 3 tcp 40 ------- 2 1.0 5.0 0 0
- 0.003064 2 3 tcp 40 ------- 2 1.0 5.0 0 0
r 0.013224 2 3 tcp 40 ------- 2 1.0 5.0 0 0
+ 0.013224 3 5 tcp 40 ------- 2 1.0 5.0 0 0
- 0.013224 3 5 tcp 40 ------- 2 1.0 5.0 0 0
r 0.016288 3 5 tcp 40 ------- 2 1.0 5.0 0 0
+ 0.016288 5 3 ack 40 ------- 2 5.0 1.0 0 1
- 0.016288 5 3 ack 40 ------- 2 5.0 1.0 0 1
r 0.019352 5 3 ack 40 ------- 2 5.0 1.0 0 1
+ 0.019352 3 2 ack 40 ------- 2 5.0 1.0 0 1
- 0.019352 3 2 ack 40 ------- 2 5.0 1.0 0 1
r 0.029512 3 2 ack 40 ------- 2 5.0 1.0 0 1
+ 0.029512 2 1 ack 40 ------- 2 5.0 1.0 0 1
- 0.029512 2 1 ack 40 ------- 2 5.0 1.0 0 1
r 0.032576 2 1 ack 40 ------- 2 5.0 1.0 0 1
+ 0.032576 1 2 tcp 1040 ------- 2 1.0 5.0 1 2
- 0.032576 1 2 tcp 1040 ------- 2 1.0 5.0 1 2
+ 0.032576 1 2 tcp 1040 ------- 2 1.0 5.0 2 3
- 0.03424 1 2 tcp 1040 ------- 2 1.0 5.0 2 3
r 0.03724 1 2 tcp 1040 ------- 2 1.0 5.0 1 2
+ 0.03724 2 3 tcp 1040 ------- 2 1.0 5.0 1 2
- 0.03724 2 3 tcp 1040 ------- 2 1.0 5.0 1 2
r 0.038904 1 2 tcp 1040 ------- 2 1.0 5.0 2 3
+ 0.038904 2 3 tcp 1040 ------- 2 1.0 5.0 2 3
- 0.0414 2 3 tcp 1040 ------- 2 1.0 5.0 2 3
r 0.0514 2 3 tcp 1040 ------- 2 1.0 5.0 1 2
+ 0.0514 3 5 tcp 1040 ------- 2 1.0 5.0 1 2
- 0.0514 3 5 tcp 1040 ------- 2 1.0 5.0 1 2
r 0.05556 2 3 tcp 1040 ------- 2 1.0 5.0 2 3
+ 0.05556 3 5 tcp 1040 ------- 2 1.0 5.0 2 3
- 0.05556 3 5 tcp 1040 ------- 2 1.0 5.0 2 3
r 0.056064 3 5 tcp 1040 ------- 2 1.0 5.0 1 2
+ 0.056064 5 3 ack 40 ------- 2 5.0 1.0 1 4
- 0.056064 5 3 ack 40 ------- 2 5.0 1.0 1 4
r 0.059128 5 3 ack 40 ------- 2 5.0 1.0 1 4
+ 0.059128 3 2 ack 40 ------- 2 5.0 1.0 1 4
- 0.059128 3 2 ack 40 ------- 2 5.0 1.0 1 4
r 0.060224 3 5 tcp 1040 ------- 2 1.0 5.0 2 3
+ 0.060224 5 3 ack 40 ------- 2 5.0 1.0 2 5
- 0.060224 5 3 ack 40 ------- 2 5.0 1.0 2 5
r 0.063288 5 3 ack 40 ------- 2 5.0 1.0 2 5
+ 0.063288 3 2 ack 40 ------- 2 5.0 1.0 2 5
- 0.063288 3 2 ack 40 ------- 2 5.0 1.0 2 5
r 0.069288 3 2 ack 40 ------- 2 5.0 1.0 1 4
+ 0.069288 2 1 ack 40 ------- 2 5.0 1.0 1 4
- 0.069288 2 1 ack 40 ------- 2 5.0 1.0 1 4
r 0.072352 2 1 ack 40 ------- 2 5.0 1.0 1 4
+ 0.072352 1 2 tcp 1040 ------- 2 1.0 5.0 3 6
- 0.072352 1 2 tcp 1040 ------- 2 1.0 5.0 3 6
+ 0.072352 1 2 tcp 1040 ------- 2 1.0 5.0 4 7
r 0.073448 3 2 ack 40 ------- 2 5.0 1.0 2 5
+ 0.073448 2 1 ack 40 ------- 2 5.0 1.0 2 5
- 0.073448 2 1 ack 40 ------- 2 5.0 1.0 2 5
- 0.074016 1 2 tcp 1040 ------- 2 1.0 5.0 4 7
r 0.076512 2 1 ack 40 ------- 2 5.0 1.0 2 5
+ 0.076512 1 2 tcp 1040 ------- 2 1.0 5.0 5 8
- 0.076512 1 2 tcp 1040 ------- 2 1.0 5.0 5 8
+ 0.076512 1 2 tcp 1040 ------- 2 1.0 5.0 6 9
r 0.077016 1 2 tcp 1040 ------- 2 1.0 5.0 3 6
+ 0.077016 2 3 tcp 1040 ------- 2 1.0 5.0 3 6
- 0.077016 2 3 tcp 1040 ------- 2 1.0 5.0 3 6
- 0.078176 1 2 tcp 1040 ------- 2 1.0 5.0 6 9
r 0.07868 1 2 tcp 1040 ------- 2 1.0 5.0 4 7
+ 0.07868 2 3 tcp 1040 ------- 2 1.0 5.0 4 7
r 0.081176 1 2 tcp 1040 ------- 2 1.0 5.0 5 8
+ 0.081176 2 3 tcp 1040 ------- 2 1.0 5.0 5 8
- 0.081176 2 3 tcp 1040 ------- 2 1.0 5.0 4 7
r 0.08284 1 2 tcp 1040 ------- 2 1.0 5.0 6 9
+ 0.08284 2 3 tcp 1040 ------- 2 1.0 5.0 6 9
- 0.085336 2 3 tcp 1040 ------- 2 1.0 5.0 5 8
- 0.089496 2 3 tcp 1040 ------- 2 1.0 5.0 6 9
r 0.091176 2 3 tcp 1040 ------- 2 1.0 5.0 3 6
+ 0.091176 3 5 tcp 1040 ------- 2 1.0 5.0 3 6
- 0.091176 3 5 tcp 1040 ------- 2 1.0 5.0 3 6
r 0.095336 2 3 tcp 1040 ------- 2 1.0 5.0 4 7
+ 0.095336 3 5 tcp 1040 ------- 2 1.0 5.0 4 7
- 0.095336 3 5 tcp 1040 ------- 2 1.0 5.0 4 7
r 0.09584 3 5 tcp 1040 ------- 2 1.0 5.0 3 6
+ 0.09584 5 3 ack 40 ------- 2 5.0 1.0 3 10
- 0.09584 5 3 ack 40 ------- 2 5.0 1.0 3 10
r 0.098904 5 3 ack 40 ------- 2 5.0 1.0 3 10
+ 0.098904 3 2 ack 40 ------- 2 5.0 1.0 3 10
- 0.098904 3 2 ack 40 ------- 2 5.0 1.0 3 10
r 0.099496 2 3 tcp 1040 ------- 2 1.0 5.0 5 8
+ 0.099496 3 5 tcp 1040 ------- 2 1.0 5.0 5 8
- 0.099496 3 5 tcp 1040 ------- 2 1.0 5.0 5 8
r 0.1 3 5 tcp 1040 ------- 2 1.0 5.0 4 7
+ 0.1 5 3 ack 40 ------- 2 5.0 1.0 4 11
- 0.1 5 3 ack 40 ------- 2 5.0 1.0 4 11
r 0.103064 5 3 ack 40 ------- 2 5.0 1.0 4 11
+ 0.103064 3 2 ack 40 ------- 2 5.0 1.0 4 11
- 0.103064 3 2 ack 40 ------- 2 5.0 1.0 4 11
r 0.103656 2 3 tcp 1040 ------- 2 1.0 5.0 6 9
+ 0.103656 3 5 tcp 1040 ------- 2 1.0 5.0 6 9
- 0.103656 3 5 tcp 1040 ------- 2 1.0 5.0 6 9
r 0.10416 3 5 tcp 1040 ------- 2 1.0 5.0 5 8
+ 0.10416 5 3 ack 40 ------- 2 5.0 1.0 5 12
- 0.10416 5 3 ack 40 ------- 2 5.0 1.0 5 12
r 0.107224 5 3 ack 40 ------- 2 5.0 1.0 5 12
+ 0.107224 3 2 ack 40 ------- 2 5.0 1.0 5 12
- 0.107224 3 2 ack 40 ------- 2 5.0 1.0 5 12
r 0.10832 3 5 tcp 1040 ------- 2 1.0 5.0 6 9
+ 0.10832 5 3 ack 40 ------- 2 5.0 1.0 6 13
- 0.10832 5 3 ack 40 ------- 2 5.0 1.0 6 13
r 0.109064 3 2 ack 40 ------- 2 5.0 1.0 3 10
+ 0.109064 2 1 ack 40 ------- 2 5.0 1.0 3 10
- 0.109064 2 1 ack 40 ------- 2 5.0 1.0 3 10
r 0.111384 5 3 ack 40 ------- 2 5.0 1.0 6 13
+ 0.111384 3 2 ack 40 ------- 2 5.0 1.0 6 13
- 0.111384 3 2 ack 40 ------- 2 5.0 1.0 6 13
r 0.112128 2 1 ack 40 ------- 2 5.0 1.0 3 10
+ 0.112128 1 2 tcp 1040 ------- 2 1.0 5.0 7 14
- 0.112128 1 2 tcp 1040 ------- 2 1.0 5.0 7 14
+ 0.112128 1 2 tcp 1040 ------- 2 1.0 5.0 8 15
r 0.113224 3 2 ack 40 ------- 2 5.0 1.0 4 11
+ 0.113224 2 1 ack 40 ------- 2 5.0 1.0 4 11
- 0.113224 2 1 ack 40 ------- 2 5.0 1.0 4 11
- 0.113792 1 2 tcp 1040 ------- 2 1.0 5.0 8 15
r 0.116288 2 1 ack 40 ------- 2 5.0 1.0 4 11
+ 0.116288 1 2 tcp 1040 ------- 2 1.0 5.0 9 16
- 0.116288 1 2 tcp 1040 ------- 2 1.0 5.0 9 16
+ 0.116288 1 2 tcp 1040 ------- 2 1.0 5.0 10 17
r 0.116792 1 2 tcp 1040 ------- 2 1.0 5.0 7 14
+ 0.116792 2 3 tcp 1040 ------- 2 1.0 5.0 7 14
- 0.116792 2 3 tcp 1040 ------- 2 1.0 5.0 7 14
r 0.117384 3 2 ack 40 ------- 2 5.0 1.0 5 12
+ 0.117384 2 1 ack 40 ------- 2 5.0 1.0 5 12
- 0.117384 2 1 ack 40 ------- 2 5.0 1.0 5 12
- 0.117952 1 2 tcp 1040 ------- 2 1.0 5.0 10 17
r 0.118456 1 2 tcp 1040 ------- 2 1.0 5.0 8 15
+ 0.118456 2 3 tcp 1040 ------- 2 1.0 5.0 8 15
r 0.120448 2 1 ack 40 ------- 2 5.0 1.0 5 12
+ 0.120448 1 2 tcp 1040 ------- 2 1.0 5.0 11 18
- 0.120448 1 2 tcp 1040 ------- 2 1.0 5.0 11 18
+ 0.120448 1 2 tcp 1040 ------- 2 1.0 5.0 12 19
r 0.120952 1 2 tcp 1040 ------- 2 1.0 5.0 9 16
+ 0.120952 2 3 tcp 1040 ------- 2 1.0 5.0 9 16
- 0.120952 2 3 tcp 1040 ------- 2 1.0 5.0 8 15
r 0.121544 3 2 ack 40 ------- 2 5.0 1.0 6 13
+ 0.121544 2 1 ack 40 ------- 2 5.0 1.0 6 13
- 0.121544 2 1 ack 40 ------- 2 5.0 1.0 6 13
- 0.122112 1 2 tcp 1040 ------- 2 1.0 5.0 12 19
r 0.122616 1 2 tcp 1040 ------- 2 1.0 5.0 10 17
+ 0.122616 2 3 tcp 1040 ------- 2 1.0 5.0 10 17
r 0.124608 2 1 ack 40 ------- 2 5.0 1.0 6 13
+ 0.124608 1 2 tcp 1040 ------- 2 1.0 5.0 13 20
- 0.124608 1 2 tcp 1040 ------- 2 1.0 5.0 13 20
+ 0.124608 1 2 tcp 1040 ------- 2 1.0 5.0 14 21
r 0.125112 1 2 tcp 1040 ------- 2 1.0 5.0 11 18
+ 0.125112 2 3 tcp 1040 ------- 2 1.0 5.0 11 18
- 0.125112 2 3 tcp 1040 ------- 2 1.0 5.0 9 16
- 0.126272 1 2 tcp 1040 ------- 2 1.0 5.0 14 21
r 0.126776 1 2 tcp 1040 ------- 2 1.0 5.0 12 19
+ 0.126776 2 3 tcp 1040 ------- 2 1.0 5.0 12 19
r 0.129272 1 2 tcp 1040 ------- 2 1.0 5.0 13 20
+ 0.129272 2 3 tcp 1040 ------- 2 1.0 5.0 13 20
- 0.129272 2 3 tcp 1040 ------- 2 1.0 5.0 10 17
r 0.130936 1 2 tcp 1040 ------- 2 1.0 5.0 14 21
+ 0.130936 2 3 tcp 1040 ------- 2 1.0 5.0 14 21
r 0.130952 2 3 tcp 1040 ------- 2 1.0 5.0 7 14
+ 0.130952 3 5 tcp 1040 ------- 2 1.0 5.0 7 14
- 0.130952 3 5 tcp 1040 ------- 2 1.0 5.0 7 14
- 0.133432 2 3 tcp 1040 ------- 2 1.0 5.0 11 18
r 0.135112 2 3 tcp 1040 ------- 2 1.0 5.0 8 15
+ 0.135112 3 5 tcp 1040 ------- 2 1.0 5.0 8 15
- 0.135112 3 5 tcp 1040 ------- 2 1.0 5.0 8 15
r 0.135616 3 5 tcp 1040 ------- 2 1.0 5.0 7 14
+ 0.135616 5 3 ack 40 ------- 2 5.0 1.0 7 22
- 0.135616 5 3 ack 40 ------- 2 5.0 1.0 7 22
- 0.137592 2 3 tcp 1040 ------- 2 1.0 5.0 12 19
r 0.13868 5 3 ack 40 ------- 2 5.0 1.0 7 22
+ 0.13868 3 2 ack 40 ------- 2 5.0 1.0 7 22
- 0.13868 3 2 ack 40 ------- 2 5.0 1.0 7 22
r 0.139272 2 3 tcp 1040 ------- 2 1.0 5.0 9 16
+ 0.139272 3 5 tcp 1040 ------- 2 1.0 5.0 9 16
- 0.139272 3 5 tcp 1040 ------- 2 1.0 5.0 9 16
r 0.139776 3 5 tcp 1040 ------- 2 1.0 5.0 8 15
+ 0.139776 5 3 ack 40 ------- 2 5.0 1.0 8 23
- 0.139776 5 3 ack 40 ------- 2 5.0 1.0 8 23
- 0.141752 2 3 tcp 1040 ------- 2 1.0 5.0 13 20
r 0.14284 5 3 ack 40 ------- 2 5.0 1.0 8 23
+ 0.14284 3 2 ack 40 ------- 2 5.0 1.0 8 23
- 0.14284 3 2 ack 40 ------- 2 5.0 1.0 8 23
r 0.143432 2 3 tcp 1040 ------- 2 1.0 5.0 10 17
+ 0.143432 3 5 tcp 1040 ------- 2 1.0 5.0 10 17
- 0.143432 3 5 tcp 1040 ------- 2 1.0 5.0 10 17
r 0.143936 3 5 tcp 1040 ------- 2 1.0 5.0 9 16
+ 0.143936 5 3 ack 40 ------- 2 5.0 1.0 9 24
- 0.143936 5 3 ack 40 ------- 2 5.0 1.0 9 24
- 0.145912 2 3 tcp 1040 ------- 2 1.0 5.0 14 21
r 0.147 5 3 ack 40 ------- 2 5.0 1.0 9 24
+ 0.147 3 2 ack 40 ------- 2 5.0 1.0 9 24
- 0.147 3 2 ack 40 ------- 2 5.0 1.0 9 24
r 0.147592 2 3 tcp 1040 ------- 2 1.0 5.0 11 18
+ 0.147592 3 5 tcp 1040 ------- 2 1.0 5.0 11 18
- 0.147592 3 5 tcp 1040 ------- 2 1.0 5.0 11 18
r 0.148096 3 5 tcp 1040 ------- 2 1.0 5.0 10 17
+ 0.148096 5 3 ack 40 ------- 2 5.0 1.0 10 25
- 0.148096 5 3 ack 40 ------- 2 5.0 1.0 10 25
r 0.14884 3 2 ack 40 ------- 2 5.0 1.0 7 22
+ 0.14884 2 1 ack 40 ------- 2 5.0 1.0 7 22
- 0.14884 2 1 ack 40 ------- 2 5.0 1.0 7 22
r 0.15116 5 3 ack 40 ------- 2 5.0 1.0 10 25
+ 0.15116 3 2 ack 40 ------- 2 5.0 1.0 10 25
- 0.15116 3 2 ack 40 ------- 2 5.0 1.0 10 25
r 0.151752 2 3 tcp 1040 ------- 2 1.0 5.0 12 19
+ 0.151752 3 5 tcp 1040 ------- 2 1.0 5.0 12 19
- 0.151752 3 5 tcp 1040 ------- 2 1.0 5.0 12 19
r 0.151904 2 1 ack 40 ------- 2 5.0 1.0 7 22
+ 0.151904 1 2 tcp 1040 ------- 2 1.0 5.0 15 26
- 0.151904 1 2 tcp 1040 ------- 2 1.0 5.0 15 26
+ 0.151904 1 2 tcp 1040 ------- 2 1.0 5.0 16 27
r 0.152256 3 5 tcp 1040 ------- 2 1.0 5.0 11 18
+ 0.152256 5 3 ack 40 ------- 2 5.0 1.0 11 28
- 0.152256 5 3 ack 40 ------- 2 5.0 1.0 11 28
r 0.153 3 2 ack 40 ------- 2 5.0 1.0 8 23
+ 0.153 2 1 ack 40 ------- 2 5.0 1.0 8 23
- 0.153 2 1 ack 40 ------- 2 5.0 1.0 8 23
- 0.153568 1 2 tcp 1040 ------- 2 1.0 5.0 16 27
r 0.15532 5 3 ack 40 ------- 2 5.0 1.0 11 28
+ 0.15532 3 2 ack 40 ------- 2 5.0 1.0 11 28
- 0.15532 3 2 ack 40 ------- 2 5.0 1.0 11 28
r 0.155912 2 3 tcp 1040 ------- 2 1.0 5.0 13 20
+ 0.155912 3 5 tcp 1040 ------- 2 1.0 5.0 13 20
- 0.155912 3 5 tcp 1040 ------- 2 1.0 5.0 13 20
r 0.156064 2 1 ack 40 ------- 2 5.0 1.0 8 23
+ 0.156064 1 2 tcp 1040 ------- 2 1.0 5.0 17 29
- 0.156064 1 2 tcp 1040 ------- 2 1.0 5.0 17 29
+ 0.156064 1 2 tcp 1040 ------- 2 1.0 5.0 18 30
r 0.156416 3 5 tcp 1040 ------- 2 1.0 5.0 12 19
+ 0.156416 5 3 ack 40 ------- 2 5.0 1.0 12 31
- 0.156416 5 3 ack 40 ------- 2 5.0 1.0 12 31
r 0.156568 1 2 tcp 1040 ------- 2 1.0 5.0 15 26
+ 0.156568 2 3 tcp 1040 ------- 2 1.0 5.0 15 26
- 0.156568 2 3 tcp 1040 ------- 2 1.0 5.0 15 26
r 0.15716 3 2 ack 40 ------- 2 5.0 1.0 9 24
+ 0.15716 2 1 ack 40 ------- 2 5.0 1.0 9 24
- 0.15716 2 1 ack 40 ------- 2 5.0 1.0 9 24
- 0.157728 1 2 tcp 1040 ------- 2 1.0 5.0 18 30
r 0.158232 1 2 tcp 1040 ------- 2 1.0 5.0 16 27
+ 0.158232 2 3 tcp 1040 ------- 2 1.0 5.0 16 27
r 0.15948 5 3 ack 40 ------- 2 5.0 1.0 12 31
+ 0.15948 3 2 ack 40 ------- 2 5.0 1.0 12 31
- 0.15948 3 2 ack 40 ------- 2 5.0 1.0 12 31
r 0.160072 2 3 tcp 1040 ------- 2 1.0 5.0 14 21
+ 0.160072 3 5 tcp 1040 ------- 2 1.0 5.0 14 21
- 0.160072 3 5 tcp 1040 ------- 2 1.0 5.0 14 21
r 0.160224 2 1 ack 40 ------- 2 5.0 1.0 9 24
+ 0.160224 1 2 tcp 1040 ------- 2 1.0 5.0 19 32
- 0.160224 1 2 tcp 1040 ------- 2 1.0 5.0 19 32
+ 0.160224 1 2 tcp 1040 ------- 2 1.0 5.0 20 33
r 0.160576 3 5 tcp 1040 ------- 2 1.0 5.0 13 20
+ 0.160576 5 3 ack 40 ------- 2 5.0 1.0 13 34
- 0.160576 5 3 ack 40 ------- 2 5.0 1.0 13 34
r 0.160728 1 2 tcp 1040 ------- 2 1.0 5.0 17 29
+ 0.160728 2 3 tcp 1040 ------- 2 1.0 5.0 17 29
- 0.160728 2 3 tcp 1040 ------- 2 1.0 5.0 16 27
r 0.16132 3 2 ack 40 ------- 2 5.0 1.0 10 25
+ 0.16132 2 1 ack 40 ------- 2 5.0 1.0 10 25
- 0.16132 2 1 ack 40 ------- 2 5.0 1.0 10 25
- 0.161888 1 2 tcp 1040 ------- 2 1.0 5.0 20 33
r 0.162392 1 2 tcp 1040 ------- 2 1.0 5.0 18 30
+ 0.162392 2 3 tcp 1040 ------- 2 1.0 5.0 18 30
r 0.16364 5 3 ack 40 ------- 2 5.0 1.0 13 34
+ 0.16364 3 2 ack 40 ------- 2 5.0 1.0 13 34
- 0.16364 3 2 ack 40 ------- 2 5.0 1.0 13 34
r 0.164384 2 1 ack 40 ------- 2 5.0 1.0 10 25
+ 0.164384 1 2 tcp 1040 ------- 2 1.0 5.0 21 35
- 0.164384 1 2 tcp 1040 ------- 2 1.0 5.0 21 35
+ 0.164384 1 2 tcp 1040 ------- 2 1.0 5.0 22 36
r 0.164736 3 5 tcp 1040 ------- 2 1.0 5.0 14 21
+ 0.164736 5 3 ack 40 ------- 2 5.0 1.0 14 37
- 0.164736 5 3 ack 40 ------- 2 5.0 1.0 14 37
r 0.164888 1 2 tcp 1040 ------- 2 1.0 5.0 19 32
+ 0.164888 2 3 tcp 1040 ------- 2 1.0 5.0 19 32
- 0.164888 2 3 tcp 1040 ------- 2 1.0 5.0 17 29
r 0.16548 3 2 ack 40 ------- 2 5.0 1.0 11 28
+ 0.16548 2 1 ack 40 ------- 2 5.0 1.0 11 28
- 0.16548 2 1 ack 40 ------- 2 5.0 1.0 11 28
- 0.166048 1 2 tcp 1040 ------- 2 1.0 5.0 22 36
r 0.166552 1 2 tcp 1040 ------- 2 1.0 5.0 20 33
+ 0.166552 2 3 tcp 1040 ------- 2 1.0 5.0 20 33
r 0.1678 5 3 ack 40 ------- 2 5.0 1.0 14 37
+ 0.1678 3 2 ack 40 ------- 2 5.0 1.0 14 37
- 0.1678 3 2 ack 40 ------- 2 5.0 1.0 14 37
r 0.168544 2 1 ack 40 ------- 2 5.0 1.0 11 28
+ 0.168544 1 2 tcp 1040 ------- 2 1.0 5.0 23 38
- 0.168544 1 2 tcp 1040 ------- 2 1.0 5.0 23 38
+ 0.168544 1 2 tcp 1040 ------- 2 1.0 5.0 24 39
r 0.169048 1 2 tcp 1040 ------- 2 1.0 5.0 21 35
+ 0.169048 2 3 tcp 1040 ------- 2 1.0 5.0 21 35
- 0.169048 2 3 tcp 1040 ------- 2 1.0 5.0 18 30
r 0.16964 3 2 ack 40 ------- 2 5.0 1.0 12 31
+ 0.16964 2 1 ack 40 ------- 2 5.0 1.0 12 31
- 0.16964 2 1 ack 40 ------- 2 5.0 1.0 12 31
- 0.170208 1 2 tcp 1040 ------- 2 1.0 5.0 24 39
r 0.170712 1 2 tcp 1040 ------- 2 1.0 5.0 22 36
+ 0.170712 2 3 tcp 1040 ------- 2 1.0 5.0 22 36
r 0.170728 2 3 tcp 1040 ------- 2 1.0 5.0 15 26
+ 0.170728 3 5 tcp 1040 ------- 2 1.0 5.0 15 26
- 0.170728 3 5 tcp 1040 ------- 2 1.0 5.0 15 26
r 0.172704 2 1 ack 40 ------- 2 5.0 1.0 12 31
+ 0.172704 1 2 tcp 1040 ------- 2 1.0 5.0 25 40
- 0.172704 1 2 tcp 1040 ------- 2 1.0 5.0 25 40
+ 0.172704 1 2 tcp 1040 ------- 2 1.0 5.0 26 41
r 0.173208 1 2 tcp 1040 ------- 2 1.0 5.0 23 38
+ 0.173208 2 3 tcp 1040 ------- 2 1.0 5.0 23 38
- 0.173208 2 3 tcp 1040 ------- 2 1.0 5.0 19 32
r 0.1738 3 2 ack 40 ------- 2 5.0 1.0 13 34
+ 0.1738 2 1 ack 40 ------- 2 5.0 1.0 13 34
- 0.1738 2 1 ack 40 ------- 2 5.0 1.0 13 34
- 0.174368 1 2 tcp 1040 ------- 2 1.0 5.0 26 41
r 0.174872 1 2 tcp 1040 ------- 2 1.0 5.0 24 39
+ 0.174872 2 3 tcp 1040 ------- 2 1.0 5.0 24 39
r 0.174888 2 3 tcp 1040 ------- 2 1.0 5.0 16 27
+ 0.174888 3 5 tcp 1040 ------- 2 1.0 5.0 16 27
- 0.174888 3 5 tcp 1040 ------- 2 1.0 5.0 16 27
r 0.175392 3 5 tcp 1040 ------- 2 1.0 5.0 15 26
+ 0.175392 5 3 ack 40 ------- 2 5.0 1.0 15 42
- 0.175392 5 3 ack 40 ------- 2 5.0 1.0 15 42
r 0.176864 2 1 ack 40 ------- 2 5.0 1.0 13 34
+ 0.176864 1 2 tcp 1040 ------- 2 1.0 5.0 27 43
- 0.176864 1 2 tcp 1040 ------- 2 1.0 5.0 27 43
+ 0.176864 1 2 tcp 1040 ------- 2 1.0 5.0 28 44
r 0.177368 1 2 tcp 1040 ------- 2 1.0 5.0 25 40
+ 0.177368 2 3 tcp 1040 ------- 2 1.0 5.0 25 40
- 0.177368 2 3 tcp 1040 ------- 2 1.0 5.0 20 33
r 0.17796 3 2 ack 40 ------- 2 5.0 1.0 14 37
+ 0.17796 2 1 ack 40 ------- 2 5.0 1.0 14 37
- 0.17796 2 1 ack 40 ------- 2 5.0 1.0 14 37
r 0.178456 5 3 ack 40 ------- 2 5.0 1.0 15 42
+ 0.178456 3 2 ack 40 ------- 2 5.0 1.0 15 42
- 0.178456 3 2 ack 40 ------- 2 5.0 1.0 15 42
- 0.178528 1 2 tcp 1040 ------- 2 1.0 5.0 28 44
r 0.179032 1 2 tcp 1040 ------- 2 1.0 5.0 26 41
+ 0.179032 2 3 tcp 1040 ------- 2 1.0 5.0 26 41
r 0.179048 2 3 tcp 1040 ------- 2 1.0 5.0 17 29
+ 0.179048 3 5 tcp 1040 ------- 2 1.0 5.0 17 29
- 0.179048 3 5 tcp 1040 ------- 2 1.0 5.0 17 29
r 0.179552 3 5 tcp 1040 ------- 2 1.0 5.0 16 27
+ 0.179552 5 3 ack 40 ------- 2 5.0 1.0 16 45
- 0.179552 5 3 ack 40 ------- 2 5.0 1.0 16 45
r 0.181024 2 1 ack 40 ------- 2 5.0 1.0 14 37
+ 0.181024 1 2 tcp 1040 ------- 2 1.0 5.0 29 46
- 0.181024 1 2 tcp 1040 ------- 2 1.0 5.0 29 46
r 0.181528 1 2 tcp 1040 ------- 2 1.0 5.0 27 43
+ 0.181528 2 3 tcp 1040 ------- 2 1.0 5.0 27 43
- 0.181528 2 3 tcp 1040 ------- 2 1.0 5.0 21 35
r 0.182616 5 3 ack 40 ------- 2 5.0 1.0 16 45
+ 0.182616 3 2 ack 40 ------- 2 5.0 1.0 16 45
- 0.182616 3 2 ack 40 ------- 2 5.0 1.0 16 45
r 0.183192 1 2 tcp 1040 ------- 2 1.0 5.0 28 44
+ 0.183192 2 3 tcp 1040 ------- 2 1.0 5.0 28 44
r 0.183208 2 3 tcp 1040 ------- 2 1.0 5.0 18 30
+ 0.183208 3 5 tcp 1040 ------- 2 1.0 5.0 18 30
- 0.183208 3 5 tcp 1040 ------- 2 1.0 5.0 18 30
r 0.183712 3 5 tcp 1040 ------- 2 1.0 5.0 17 29
+ 0.183712 5 3 ack 40 ------- 2 5.0 1.0 17 47
- 0.183712 5 3 ack 40 ------- 2 5.0 1.0 17 47
r 0.185688 1 2 tcp 1040 ------- 2 1.0 5.0 29 46
+ 0.185688 2 3 tcp 1040 ------- 2 1.0 5.0 29 46
- 0.185688 2 3 tcp 1040 ------- 2 1.0 5.0 22 36
r 0.186776 5 3 ack 40 ------- 2 5.0 1.0 17 47
+ 0.186776 3 2 ack 40 ------- 2 5.0 1.0 17 47
- 0.186776 3 2 ack 40 ------- 2 5.0 1.0 17 47
r 0.187368 2 3 tcp 1040 ------- 2 1.0 5.0 19 32
+ 0.187368 3 5 tcp 1040 ------- 2 1.0 5.0 19 32
- 0.187368 3 5 tcp 1040 ------- 2 1.0 5.0 19 32
r 0.187872 3 5 tcp 1040 ------- 2 1.0 5.0 18 30
+ 0.187872 5 3 ack 40 ------- 2 5.0 1.0 18 48
- 0.187872 5 3 ack 40 ------- 2 5.0 1.0 18 48
r 0.188616 3 2 ack 40 ------- 2 5.0 1.0 15 42
+ 0.188616 2 1 ack 40 ------- 2 5.0 1.0 15 42
- 0.188616 2 1 ack 40 ------- 2 5.0 1.0 15 42
- 0.189848 2 3 tcp 1040 ------- 2 1.0 5.0 23 38
r 0.190936 5 3 ack 40 ------- 2 5.0 1.0 18 48
+ 0.190936 3 2 ack 40 ------- 2 5.0 1.0 18 48
- 0.190936 3 2 ack 40 ------- 2 5.0 1.0 18 48
r 0.191528 2 3 tcp 1040 ------- 2 1.0 5.0 20 33
+ 0.191528 3 5 tcp 1040 ------- 2 1.0 5.0 20 33
- 0.191528 3 5 tcp 1040 ------- 2 1.0 5.0 20 33
r 0.19168 2 1 ack 40 ------- 2 5.0 1.0 15 42
+ 0.19168 1 2 tcp 1040 ------- 2 1.0 5.0 30 49
- 0.19168 1 2 tcp 1040 ------- 2 1.0 5.0 30 49
r 0.192032 3 5 tcp 1040 ------- 2 1.0 5.0 19 32
+ 0.192032 5 3 ack 40 ------- 2 5.0 1.0 19 50
- 0.192032 5 3 ack 40 ------- 2 5.0 1.0 19 50
r 0.192776 3 2 ack 40 ------- 2 5.0 1.0 16 45
+ 0.192776 2 1 ack 40 ------- 2 5.0 1.0 16 45
- 0.192776 2 1 ack 40 ------- 2 5.0 1.0 16 45
- 0.194008 2 3 tcp 1040 ------- 2 1.0 5.0 24 39
r 0.195096 5 3 ack 40 ------- 2 5.0 1.0 19 50
+ 0.195096 3 2 ack 40 ------- 2 5.0 1.0 19 50
- 0.195096 3 2 ack 40 ------- 2 5.0 1.0 19 50
r 0.195688 2 3 tcp 1040 ------- 2 1.0 5.0 21 35
+ 0.195688 3 5 tcp 1040 ------- 2 1.0 5.0 21 35
- 0.195688 3 5 tcp 1040 ------- 2 1.0 5.0 21 35
r 0.19584 2 1 ack 40 ------- 2 5.0 1.0 16 45
+ 0.19584 1 2 tcp 1040 ------- 2 1.0 5.0 31 51
- 0.19584 1 2 tcp 1040 ------- 2 1.0 5.0 31 51
r 0.196192 3 5 tcp 1040 ------- 2 1.0 5.0 20 33
+ 0.196192 5 3 ack 40 ------- 2 5.0 1.0 20 52
- 0.196192 5 3 ack 40 ------- 2 5.0 1.0 20 52
r 0.196344 1 2 tcp 1040 ------- 2 1.0 5.0 30 49
+ 0.196344 2 3 tcp 1040 ------- 2 1.0 5.0 30 49
r 0.196936 3 2 ack 40 ------- 2 5.0 1.0 17 47
+ 0.196936 2 1 ack 40 ------- 2 5.0 1.0 17 47
- 0.196936 2 1 ack 40 ------- 2 5.0 1.0 17 47
- 0.198168 2 3 tcp 1040 ------- 2 1.0 5.0 25 40
r 0.199256 5 3 ack 40 ------- 2 5.0 1.0 20 52
+ 0.199256 3 2 ack 40 ------- 2 5.0 1.0 20 52
- 0.199256 3 2 ack 40 ------- 2 5.0 1.0 20 52
r 0.199848 2 3 tcp 1040 ------- 2 1.0 5.0 22 36
+ 0.199848 3 5 tcp 1040 ------- 2 1.0 5.0 22 36
- 0.199848 3 5 tcp 1040 ------- 2 1.0 5.0 22 36
r 0.2 2 1 ack 40 ------- 2 5.0 1.0 17 47
+ 0.2 1 2 tcp 1040 ------- 2 1.0 5.0 32 53
- 0.2 1 2 tcp 1040 ------- 2 1.0 5.0 32 53
r 0.200352 3 5 tcp 1040 ------- 2 1.0 5.0 21 35
+ 0.200352 5 3 ack 40 ------- 2 5.0 1.0 21 54
- 0.200352 5 3 ack 40 ------- 2 5.0 1.0 21 54
r 0.200504 1 2 tcp 1040 ------- 2 1.0 5.0 31 51
+ 0.200504 2 3 tcp 1040 ------- 2 1.0 5.0 31 51
r 0.201096 3 2 ack 40 ------- 2 5.0 1.0 18 48
+ 0.201096 2 1 ack 40 ------- 2 5.0 1.0 18 48
- 0.201096 2 1 ack 40 ------- 2 5.0 1.0 18 48
- 0.202328 2 3 tcp 1040 ------- 2 1.0 5.0 26 41
r 0.203416 5 3 ack 40 ------- 2 5.0 1.0 21 54
+ 0.203416 3 2 ack 40 ------- 2 5.0 1.0 21 54
- 0.203416 3 2 ack 40 ------- 2 5.0 1.0 21 54
r 0.204008 2 3 tcp 1040 ------- 2 1.0 5.0 23 38
+ 0.204008 3 5 tcp 1040 ------- 2 1.0 5.0 23 38
- 0.204008 3 5 tcp 1040 ------- 2 1.0 5.0 23 38
r 0.20416 2 1 ack 40 ------- 2 5.0 1.0 18 48
+ 0.20416 1 2 tcp 1040 ------- 2 1.0 5.0 33 55
- 0.20416 1 2 tcp 1040 ------- 2 1.0 5.0 33 55
r 0.204512 3 5 tcp 1040 ------- 2 1.0 5.0 22 36
+ 0.204512 5 3 ack 40 ------- 2 5.0 1.0 22 56
- 0.204512 5 3 ack 40 ------- 2 5.0 1.0 22 56
r 0.204664 1 2 tcp 1040 ------- 2 1.0 5.0 32 53
+ 0.204664 2 3 tcp 1040 ------- 2 1.0 5.0 32 53
r 0.205256 3 2 ack 40 ------- 2 5.0 1.0 19 50
+ 0.205256 2 1 ack 40 ------- 2 5.0 1.0 19 50
- 0.205256 2 1 ack 40 ------- 2 5.0 1.0 19 50
- 0.206488 2 3 tcp 1040 ------- 2 1.0 5.0 27 43
r 0.207576 5 3 ack 40 ------- 2 5.0 1.0 22 56
+ 0.207576 3 2 ack 40 ------- 2 5.0 1.0 22 56
- 0.207576 3 2 ack 40 ------- 2 5.0 1.0 22 56
r 0.208168 2 3 tcp 1040 ------- 2 1.0 5.0 24 39
+ 0.208168 3 5 tcp 1040 ------- 2 1.0 5.0 24 39
- 0.208168 3 5 tcp 1040 ------- 2 1.0 5.0 24 39
r 0.20832 2 1 ack 40 ------- 2 5.0 1.0 19 50
+ 0.20832 1 2 tcp 1040 ------- 2 1.0 5.0 34 57
- 0.20832 1 2 tcp 1040 ------- 2 1.0 5.0 34 57
r 0.208672 3 5 tcp 1040 ------- 2 1.0 5.0 23 38
+ 0.208672 5 3 ack 40 ------- 2 5.0 1.0 23 58
- 0.208672 5 3 ack 40 ------- 2 5.0 1.0 23 58
r 0.208824 1 2 tcp 1040 ------- 2 1.0 5.0 33 55
+ 0.208824 2 3 tcp 1040 ------- 2 1.0 5.0 33 55
r 0.209416 3 2 ack 40 ------- 2 5.0 1.0 20 52
+ 0.209416 2 1 ack 40 ------- 2 5.0 1.0 20 52
- 0.209416 2 1 ack 40 ------- 2 5.0 1.0 20 52
- 0.210648 2 3 tcp 1040 ------- 2 1.0 5.0 28 44
r 0.211736 5 3 ack 40 ------- 2 5.0 1.0 23 58
+ 0.211736 3 2 ack 40 ------- 2 5.0 1.0 23 58
- 0.211736 3 2 ack 40 ------- 2 5.0 1.0 23 58
r 0.212328 2 3 tcp 1040 ------- 2 1.0 5.0 25 40
+ 0.212328 3 5 tcp 1040 ------- 2 1.0 5.0 25 40
- 0.212328 3 5 tcp 1040 ------- 2 1.0 5.0 25 40
r 0.21248 2 1 ack 40 ------- 2 5.0 1.0 20 52
+ 0.21248 1 2 tcp 1040 ------- 2 1.0 5.0 35 59
- 0.21248 1 2 tcp 1040 ------- 2 1.0 5.0 35 59
r 0.212832 3 5 tcp 1040 ------- 2 1.0 5.0 24 39
+ 0.212832 5 3 ack 40 ------- 2 5.0 1.0 24 60
- 0.212832 5 3 ack 40 ------- 2 5.0 1.0 24 60
r 0.212984 1 2 tcp 1040 ------- 2 1.0 5.0 34 57
+ 0.212984 2 3 tcp 1040 ------- 2 1.0 5.0 34 57
r 0.213576 3 2 ack 40 ------- 2 5.0 1.0 21 54
+ 0.213576 2 1 ack 40 ------- 2 5.0 1.0 21 54
- 0.213576 2 1 ack 40 ------- 2 5.0 1.0 21 54
- 0.214808 2 3 tcp 1040 ------- 2 1.0 5.0 29 46
r 0.215896 5 3 ack 40 ------- 2 5.0 1.0 24 60
+ 0.215896 3 2 ack 40 ------- 2 5.0 1.0 24 60
- 0.215896 3 2 ack 40 ------- 2 5.0 1.0 24 60
r 0.216488 2 3 tcp 1040 ------- 2 1.0 5.0 26 41
+ 0.216488 3 5 tcp 1040 ------- 2 1.0 5.0 26 41
- 0.216488 3 5 tcp 1040 ------- 2 1.0 5.0 26 41
r 0.21664 2 1 ack 40 ------- 2 5.0 1.0 21 54
+ 0.21664 1 2 tcp 1040 ------- 2 1.0 5.0 36 61
- 0.21664 1 2 tcp 1040 ------- 2 1.0 5.0 36 61
r 0.216992 3 5 tcp 1040 ------- 2 1.0 5.0 25 40
+ 0.216992 5 3 ack 40 ------- 2 5.0 1.0 25 62
- 0.216992 5 3 ack 40 ------- 2 5.0 1.0 25 62
r 0.217144 1 2 tcp 1040 ------- 2 1.0 5.0 35 59
+ 0.217144 2 3 tcp 1040 ------- 2 1.0 5.0 35 59
r 0.217736 3 2 ack 40 ------- 2 5.0 1.0 22 56
+ 0.217736 2 1 ack 40 ------- 2 5.0 1.0 22 56
- 0.217736 2 1 ack 40 ------- 2 5.0 1.0 22 56
- 0.218968 2 3 tcp 1040 ------- 2 1.0 5.0 30 49
r 0.220056 5 3 ack 40 ------- 2 5.0 1.0 25 62
+ 0.220056 3 2 ack 40 ------- 2 5.0 1.0 25 62
- 0.220056 3 2 ack 40 ------- 2 5.0 1.0 25 62
r 0.220648 2 3 tcp 1040 ------- 2 1.0 5.0 27 43
+ 0.220648 3 5 tcp 1040 ------- 2 1.0 5.0 27 43
- 0.220648 3 5 tcp 1040 ------- 2 1.0 5.0 27 43
r 0.2208 2 1 ack 40 ------- 2 5.0 1.0 22 56
+ 0.2208 1 2 tcp 1040 ------- 2 1.0 5.0 37 63
- 0.2208 1 2 tcp 1040 ------- 2 1.0 5.0 37 63
r 0.221152 3 5 tcp 1040 ------- 2 1.0 5.0 26 41
+ 0.221152 5 3 ack 40 ------- 2 5.0 1.0 26 64
- 0.221152 5 3 ack 40 ------- 2 5.0 1.0 26 64
r 0.221304 1 2 tcp 1040 ------- 2 1.0 5.0 36 61
+ 0.221304 2 3 tcp 1040 ------- 2 1.0 5.0 36 61
r 0.221896 3 2 ack 40 ------- 2 5.0 1.0 23 58
+ 0.221896 2 1 ack 40 ------- 2 5.0 1.0 23 58
- 0.221896 2 1 ack 40 ------- 2 5.0 1.0 23 58
- 0.223128 2 3 tcp 1040 ------- 2 1.0 5.0 31 51
r 0.224216 5 3 ack 40 ------- 2 5.0 1.0 26 64
+ 0.224216 3 2 ack 40 ------- 2 5.0 1.0 26 64
- 0.224216 3 2 ack 40 ------- 2 5.0 1.0 26 64
r 0.224808 2 3 tcp 1040 ------- 2 1.0 5.0 28 44
+ 0.224808 3 5 tcp 1040 ------- 2 1.0 5.0 28 44
- 0.224808 3 5 tcp 1040 ------- 2 1.0 5.0 28 44
r 0.22496 2 1 ack 40 ------- 2 5.0 1.0 23 58
+ 0.22496 1 2 tcp 1040 ------- 2 1.0 5.0 38 65
- 0.22496 1 2 tcp 1040 ------- 2 1.0 5.0 38 65
r 0.225312 3 5 tcp 1040 ------- 2 1.0 5.0 27 43
+ 0.225312 5 3 ack 40 ------- 2 5.0 1.0 27 66
- 0.225312 5 3 ack 40 ------- 2 5.0 1.0 27 66
r 0.225464 1 2 tcp 1040 ------- 2 1.0 5.0 37 63
+ 0.225464 2 3 tcp 1040 ------- 2 1.0 5.0 37 63
r 0.226056 3 2 ack 40 ------- 2 5.0 1.0 24 60
+ 0.226056 2 1 ack 40 ------- 2 5.0 1.0 24 60
- 0.226056 2 1 ack 40 ------- 2 5.0 1.0 24 60
- 0.227288 2 3 tcp 1040 ------- 2 1.0 5.0 32 53
r 0.228376 5 3 ack 40 ------- 2 5.0 1.0 27 66
+ 0.228376 3 2 ack 40 ------- 2 5.0 1.0 27 66
- 0.228376 3 2 ack 40 ------- 2 5.0 1.0 27 66
r 0.228968 2 3 tcp 1040 ------- 2 1.0 5.0 29 46
+ 0.228968 3 5 tcp 1040 ------- 2 1.0 5.0 29 46
- 0.228968 3 5 tcp 1040 ------- 2 1.0 5.0 29 46
r 0.22912 2 1 ack 40 ------- 2 5.0 1.0 24 60
+ 0.22912 1 2 tcp 1040 ------- 2 1.0 5.0 39 67
- 0.22912 1 2 tcp 1040 ------- 2 1.0 5.0 39 67
r 0.229472 3 5 tcp 1040 ------- 2 1.0 5.0 28 44
+ 0.229472 5 3 ack 40 ------- 2 5.0 1.0 28 68
- 0.229472 5 3 ack 40 ------- 2 5.0 1.0 28 68
r 0.229624 1 2 tcp 1040 ------- 2 1.0 5.0 38 65
+ 0.229624 2 3 tcp 1040 ------- 2 1.0 5.0 38 65
r 0.230216 3 2 ack 40 ------- 2 5.0 1.0 25 62
+ 0.230216 2 1 ack 40 ------- 2 5.0 1.0 25 62
- 0.230216 2 1 ack 40 ------- 2 5.0 1.0 25 62
- 0.231448 2 3 tcp 1040 ------- 2 1.0 5.0 33 55
r 0.232536 5 3 ack 40 ------- 2 5.0 1.0 28 68
+ 0.232536 3 2 ack 40 ------- 2 5.0 1.0 28 68
- 0.232536 3 2 ack 40 ------- 2 5.0 1.0 28 68
r 0.233128 2 3 tcp 1040 ------- 2 1.0 5.0 30 49
+ 0.233128 3 5 tcp 1040 ------- 2 1.0 5.0 30 49
- 0.233128 3 5 tcp 1040 ------- 2 1.0 5.0 30 49
r 0.23328 2 1 ack 40 ------- 2 5.0 1.0 25 62
+ 0.23328 1 2 tcp 1040 ------- 2 1.0 5.0 40 69
- 0.23328 1 2 tcp 1040 ------- 2 1.0 5.0 40 69
r 0.233632 3 5 tcp 1040 ------- 2 1.0 5.0 29 46
+ 0.233632 5 3 ack 40 ------- 2 5.0 1.0 29 70
- 0.233632 5 3 ack 40 ------- 2 5.0 1.0 29 70
r 0.233784 1 2 tcp 1040 ------- 2 1.0 5.0 39 67
+ 0.233784 2 3 tcp 1040 ------- 2 1.0 5.0 39 67
r 0.234376 3 2 ack 40 ------- 2 5.0 1.0 26 64
+ 0.234376 2 1 ack 40 ------- 2 5.0 1.0 26 64
- 0.234376 2 1 ack 40 ------- 2 5.0 1.0 26 64
- 0.235608 2 3 tcp 1040 ------- 2 1.0 5.0 34 57
r 0.236696 5 3 ack 40 ------- 2 5.0 1.0 29 70
+ 0.236696 3 2 ack 40 ------- 2 5.0 1.0 29 70
- 0.236696 3 2 ack 40 ------- 2 5.0 1.0 29 70
r 0.237288 2 3 tcp 1040 ------- 2 1.0 5.0 31 51
+ 0.237288 3 5 tcp 1040 ------- 2 1.0 5.0 31 51
- 0.237288 3 5 tcp 1040 ------- 2 1.0 5.0 31 51
r 0.23744 2 1 ack 40 ------- 2 5.0 1.0 26 64
+ 0.23744 1 2 tcp 1040 ------- 2 1.0 5.0 41 71
- 0.23744 1 2 tcp 1040 ------- 2 1.0 5.0 41 71
r 0.237792 3 5 tcp 1040 ------- 2 1.0 5.0 30 49
+ 0.237792 5 3 ack 40 ------- 2 5.0 1.0 30 72
- 0.237792 5 3 ack 40 ------- 2 5.0 1.0 30 72
r 0.237944 1 2 tcp 1040 ------- 2 1.0 5.0 40 69
+ 0.237944 2 3 tcp 1040 ------- 2 1.0 5.0 40 69
r 0.238536 3 2 ack 40 ------- 2 5.0 1.0 27 66
+ 0.238536 2 1 ack 40 ------- 2 5.0 1.0 27 66
- 0.238536 2 1 ack 40 ------- 2 5.0 1.0 27 66
- 0.239768 2 3 tcp 1040 ------- 2 1.0 5.0 35 59
r 0.240856 5 3 ack 40 ------- 2 5.0 1.0 30 72
+ 0.240856 3 2 ack 40 ------- 2 5.0 1.0 30 72
- 0.240856 3 2 ack 40 ------- 2 5.0 1.0 30 72
r 0.241448 2 3 tcp 1040 ------- 2 1.0 5.0 32 53
+ 0.241448 3 5 tcp 1040 ------- 2 1.0 5.0 32 53
- 0.241448 3 5 tcp 1040 ------- 2 1.0 5.0 32 53
r 0.2416 2 1 ack 40 ------- 2 5.0 1.0 27 66
+ 0.2416 1 2 tcp 1040 ------- 2 1.0 5.0 42 73
- 0.2416 1 2 tcp 1040 ------- 2 1.0 5.0 42 73
r 0.241952 3 5 tcp 1040 ------- 2 1.0 5.0 31 51
+ 0.241952 5 3 ack 40 ------- 2 5.0 1.0 31 74
- 0.241952 5 3 ack 40 ------- 2 5.0 1.0 31 74
r 0.242104 1 2 tcp 1040 ------- 2 1.0 5.0 41 71
+ 0.242104 2 3 tcp 1040 ------- 2 1.0 5.0 41 71
r 0.242696 3 2 ack 40 ------- 2 5.0 1.0 28 68
+ 0.242696 2 1 ack 40 ------- 2 5.0 1.0 28 68
- 0.242696 2 1 ack 40 ------- 2 5.0 1.0 28 68
- 0.243928 2 3 tcp 1040 ------- 2 1.0 5.0 36 61
r 0.245016 5 3 ack 40 ------- 2 5.0 1.0 31 74
+ 0.245016 3 2 ack 40 ------- 2 5.0 1.0 31 74
- 0.245016 3 2 ack 40 ------- 2 5.0 1.0 31 74
r 0.245608 2 3 tcp 1040 ------- 2 1.0 5.0 33 55
+ 0.245608 3 5 tcp 1040 ------- 2 1.0 5.0 33 55
- 0.245608 3 5 tcp 1040 ------- 2 1.0 5.0 33 55
r 0.24576 2 1 ack 40 ------- 2 5.0 1.0 28 68
+ 0.24576 1 2 tcp 1040 ------- 2 1.0 5.0 43 75
- 0.24576 1 2 tcp 1040 ------- 2 1.0 5.0 43 75
r 0.246112 3 5 tcp 1040 ------- 2 1.0 5.0 32 53
+ 0.246112 5 3 ack 40 ------- 2 5.0 1.0 32 76
- 0.246112 5 3 ack 40 ------- 2 5.0 1.0 32 76
r 0.246264 1 2 tcp 1040 ------- 2 1.0 5.0 42 73
+ 0.246264 2 3 tcp 1040 ------- 2 1.0 5.0 42 73
r 0.246856 3 2 ack 40 ------- 2 5.0 1.0 29 70
+ 0.246856 2 1 ack 40 ------- 2 5.0 1.0 29 70
- 0.246856 2 1 ack 40 ------- 2 5.0 1.0 29 70
- 0.248088 2 3 tcp 1040 ------- 2 1.0 5.0 37 63
r 0.249176 5 3 ack 40 ------- 2 5.0 1.0 32 76
+ 0.249176 3 2 ack 40 ------- 2 5.0 1.0 32 76
- 0.249176 3 2 ack 40 ------- 2 5.0 1.0 32 76
r 0.249768 2 3 tcp 1040 ------- 2 1.0 5.0 34 57
+ 0.249768 3 5 tcp 1040 ------- 2 1.0 5.0 34 57
- 0.249768 3 5 tcp 1040 ------- 2 1.0 5.0 34 57
r 0.24992 2 1 ack 40 ------- 2 5.0 1.0 29 70
+ 0.24992 1 2 tcp 1040 ------- 2 1.0 5.0 44 77
- 0.24992 1 2 tcp 1040 ------- 2 1.0 5.0 44 77
r 0.250272 3 5 tcp 1040 ------- 2 1.0 5.0 33 55
+ 0.250272 5 3 ack 40 ------- 2 5.0 1.0 33 78
- 0.250272 5 3 ack 40 ------- 2 5.0 1.0 33 78
r 0.250424 1 2 tcp 1040 ------- 2 1.0 5.0 43 75
+ 0.250424 2 3 tcp 1040 ------- 2 1.0 5.0 43 75
r 0.251016 3 2 ack 40 ------- 2 5.0 1.0 30 72
+ 0.251016 2 1 ack 40 ------- 2 5.0 1.0 30 72
- 0.251016 2 1 ack 40 ------- 2 5.0 1.0 30 72
- 0.252248 2 3 tcp 1040 ------- 2 1.0 5.0 38 65
r 0.253336 5 3 ack 40 ------- 2 5.0 1.0 33 78